ITEM: TIMESTEP
0
ITEM: NUMBER OF ATOMS
5000
ITEM: BOX BOUNDS pp pp pp
-6.2150000000000005e-01 6.1497498999999998e+01
-7.0029999999999997e-03 2.1549299700000000e+02
-3.2999999999999998e+00 6.7000000000000002e+00
ITEM: ATOMS id type x y z f_Totaltemperatom 
1 2 -0.000297739 1.34158 1.7 0 
2 2 1.24245 3.52151 1.7 0 
3 2 -0.00020918 2.79215 1.7 0 
4 2 1.2425 0.634173 1.7 0 
5 2 2.48446 1.34152 1.7 0 
6 2 3.72722 3.52157 1.7 0 
7 2 2.48458 2.79216 1.7 0 
8 2 3.72728 0.634177 1.7 0 
9 2 4.96935 1.34136 1.7 0 
10 2 6.21183 3.52171 1.7 0 
11 2 4.96937 2.79223 1.7 0 
12 2 6.21183 0.634251 1.7 0 
13 2 7.45445 1.34144 1.7 0 
14 2 8.6965 3.52148 1.7 0 
15 2 7.45441 2.79223 1.7 0 
16 2 8.69646 0.634148 1.7 0 
17 2 9.93912 1.34179 1.7 0 
18 2 11.1816 3.52144 1.7 0 
19 2 9.93908 2.79204 1.7 0 
20 2 11.1816 0.634141 1.7 0 
21 2 12.4235 1.34159 1.7 0 
22 2 13.6663 3.52156 1.7 0 
23 2 12.4237 2.79216 1.7 0 
24 2 13.6664 0.634185 1.7 0 
25 2 14.9084 1.34137 1.7 0 
26 2 16.1509 3.5217 1.7 0 
27 2 14.9085 2.79222 1.7 0 
28 2 16.1509 0.634244 1.7 0 
29 2 17.3935 1.34144 1.7 0 
30 2 18.6355 3.52148 1.7 0 
31 2 17.3935 2.79222 1.7 0 
32 2 18.6355 0.634144 1.7 0 
33 2 19.8781 1.34178 1.7 0 
34 2 21.1206 3.52144 1.7 0 
35 2 19.8781 2.79204 1.7 0 
36 2 21.1206 0.634141 1.7 0 
37 2 22.3625 1.34159 1.7 0 
38 2 23.6053 3.52156 1.7 0 
39 2 22.3627 2.79216 1.7 0 
40 2 23.6054 0.634185 1.7 0 
41 2 24.8474 1.34137 1.7 0 
42 2 26.0899 3.5217 1.7 0 
43 2 24.8475 2.79222 1.7 0 
44 2 26.0899 0.634244 1.7 0 
45 2 27.3325 1.34144 1.7 0 
46 2 28.5745 3.52148 1.7 0 
47 2 27.3325 2.79222 1.7 0 
48 2 28.5745 0.634144 1.7 0 
49 2 29.8171 1.34178 1.7 0 
50 2 31.0596 3.52144 1.7 0 
51 2 29.8171 2.79204 1.7 0 
52 2 31.0596 0.634141 1.7 0 
53 2 32.3015 1.34159 1.7 0 
54 2 33.5443 3.52156 1.7 0 
55 2 32.3017 2.79216 1.7 0 
56 2 33.5444 0.634185 1.7 0 
57 2 34.7864 1.34137 1.7 0 
58 2 36.0289 3.5217 1.7 0 
59 2 34.7865 2.79222 1.7 0 
60 2 36.0289 0.634244 1.7 0 
61 2 37.2715 1.34144 1.7 0 
62 2 38.5135 3.52148 1.7 0 
63 2 37.2715 2.79222 1.7 0 
64 2 38.5135 0.634144 1.7 0 
65 2 39.7561 1.34178 1.7 0 
66 2 40.9986 3.52144 1.7 0 
67 2 39.7561 2.79204 1.7 0 
68 2 40.9986 0.634141 1.7 0 
69 2 42.2405 1.34159 1.7 0 
70 2 43.4833 3.52156 1.7 0 
71 2 42.2407 2.79216 1.7 0 
72 2 43.4834 0.634185 1.7 0 
73 2 44.7254 1.34137 1.7 0 
74 2 45.9679 3.5217 1.7 0 
75 2 44.7255 2.79222 1.7 0 
76 2 45.9679 0.634244 1.7 0 
77 2 47.2105 1.34144 1.7 0 
78 2 48.4525 3.52148 1.7 0 
79 2 47.2105 2.79222 1.7 0 
80 2 48.4525 0.634144 1.7 0 
81 2 49.6951 1.34178 1.7 0 
82 2 50.9376 3.52144 1.7 0 
83 2 49.6951 2.79204 1.7 0 
84 2 50.9376 0.634141 1.7 0 
85 2 52.1795 1.34159 1.7 0 
86 2 53.4223 3.52156 1.7 0 
87 2 52.1797 2.79216 1.7 0 
88 2 53.4224 0.634185 1.7 0 
89 2 54.6644 1.34137 1.7 0 
90 2 55.9069 3.5217 1.7 0 
91 2 54.6645 2.79222 1.7 0 
92 2 55.9069 0.634243 1.7 0 
93 2 57.1495 1.34144 1.7 0 
94 2 58.3916 3.52148 1.7 0 
95 2 57.1495 2.79223 1.7 0 
96 2 58.3915 0.634151 1.7 0 
97 2 59.6342 1.34179 1.7 0 
98 2 60.8767 3.52142 1.7 0 
99 2 59.6342 2.79204 1.7 0 
100 2 60.8767 0.634129 1.7 0 
101 2 -0.000168269 5.69905 1.7 0 
102 2 1.24241 7.88029 1.7 0 
103 2 -0.000167745 7.14998 1.7 0 
104 2 1.24239 4.9684 1.7 0 
105 2 2.48463 5.69898 1.7 0 
106 2 3.72717 7.88039 1.7 0 
107 2 2.48458 7.15003 1.7 0 
108 2 3.72716 4.96838 1.7 0 
109 2 4.96935 5.69896 1.7 0 
110 2 6.21188 7.88035 1.7 0 
111 2 4.96938 7.15005 1.7 0 
112 2 6.21186 4.96829 1.7 0 
113 2 7.45437 5.69899 1.7 0 
114 2 8.69664 7.88029 1.7 0 
115 2 7.45428 7.15004 1.7 0 
116 2 8.69662 4.96844 1.7 0 
117 2 9.93903 5.69908 1.7 0 
118 2 11.1815 7.88033 1.7 0 
119 2 9.939 7.14996 1.7 0 
120 2 11.1815 4.96842 1.7 0 
121 2 12.4238 5.699 1.7 0 
122 2 13.6662 7.8803 1.7 0 
123 2 12.4238 7.15003 1.7 0 
124 2 13.6662 4.9684 1.7 0 
125 2 14.9085 5.699 1.7 0 
126 2 16.151 7.88034 1.7 0 
127 2 14.9085 7.15001 1.7 0 
128 2 16.151 4.96829 1.7 0 
129 2 17.3934 5.69899 1.7 0 
130 2 18.6357 7.8803 1.7 0 
131 2 17.3933 7.15004 1.7 0 
132 2 18.6356 4.96844 1.7 0 
133 2 19.878 5.69908 1.7 0 
134 2 21.1205 7.88033 1.7 0 
135 2 19.878 7.14996 1.7 0 
136 2 21.1205 4.96842 1.7 0 
137 2 22.3628 5.699 1.7 0 
138 2 23.6052 7.8803 1.7 0 
139 2 22.3628 7.15003 1.7 0 
140 2 23.6052 4.9684 1.7 0 
141 2 24.8475 5.699 1.7 0 
142 2 26.09 7.88034 1.7 0 
143 2 24.8475 7.15001 1.7 0 
144 2 26.09 4.96829 1.7 0 
145 2 27.3324 5.69899 1.7 0 
146 2 28.5747 7.8803 1.7 0 
147 2 27.3323 7.15004 1.7 0 
148 2 28.5746 4.96844 1.7 0 
149 2 29.817 5.69908 1.7 0 
150 2 31.0595 7.88033 1.7 0 
151 2 29.817 7.14996 1.7 0 
152 2 31.0595 4.96842 1.7 0 
153 2 32.3018 5.699 1.7 0 
154 2 33.5442 7.8803 1.7 0 
155 2 32.3018 7.15003 1.7 0 
156 2 33.5442 4.9684 1.7 0 
157 2 34.7865 5.699 1.7 0 
158 2 36.029 7.88034 1.7 0 
159 2 34.7865 7.15001 1.7 0 
160 2 36.029 4.96829 1.7 0 
161 2 37.2714 5.69899 1.7 0 
162 2 38.5137 7.8803 1.7 0 
163 2 37.2713 7.15004 1.7 0 
164 2 38.5136 4.96844 1.7 0 
165 2 39.756 5.69908 1.7 0 
166 2 40.9985 7.88033 1.7 0 
167 2 39.756 7.14996 1.7 0 
168 2 40.9985 4.96842 1.7 0 
169 2 42.2408 5.699 1.7 0 
170 2 43.4832 7.8803 1.7 0 
171 2 42.2408 7.15003 1.7 0 
172 2 43.4832 4.9684 1.7 0 
173 2 44.7255 5.699 1.7 0 
174 2 45.968 7.88034 1.7 0 
175 2 44.7255 7.15001 1.7 0 
176 2 45.968 4.96829 1.7 0 
177 2 47.2104 5.69899 1.7 0 
178 2 48.4527 7.8803 1.7 0 
179 2 47.2103 7.15004 1.7 0 
180 2 48.4526 4.96844 1.7 0 
181 2 49.695 5.69908 1.7 0 
182 2 50.9375 7.88033 1.7 0 
183 2 49.695 7.14996 1.7 0 
184 2 50.9375 4.96842 1.7 0 
185 2 52.1798 5.699 1.7 0 
186 2 53.4222 7.8803 1.7 0 
187 2 52.1798 7.15003 1.7 0 
188 2 53.4222 4.9684 1.7 0 
189 2 54.6645 5.699 1.7 0 
190 2 55.907 7.88034 1.7 0 
191 2 54.6645 7.15001 1.7 0 
192 2 55.907 4.96829 1.7 0 
193 2 57.1494 5.69898 1.7 0 
194 2 58.3917 7.8803 1.7 0 
195 2 57.1493 7.15004 1.7 0 
196 2 58.3917 4.96844 1.7 0 
197 2 59.6341 5.69909 1.7 0 
198 2 60.8766 7.88027 1.7 0 
199 2 59.6341 7.14996 1.7 0 
200 2 60.8766 4.96844 1.7 0 
201 2 -0.000171995 10.0417 1.7 0 
202 2 1.24243 12.1939 1.7 0 
203 2 -0.000169831 11.4763 1.7 0 
204 2 1.24243 9.32241 1.7 0 
205 2 2.48457 10.0416 1.7 0 
206 2 3.72717 12.194 1.7 0 
207 2 2.48457 11.4764 1.7 0 
208 2 3.72717 9.32229 1.7 0 
209 2 4.96939 10.0416 1.7 0 
210 2 6.21189 12.194 1.7 0 
211 2 4.96939 11.4765 1.7 0 
212 2 6.21189 9.32234 1.7 0 
213 2 7.45427 10.0416 1.7 0 
214 2 8.69667 12.1939 1.7 0 
215 2 7.45427 11.4764 1.7 0 
216 2 8.69667 9.32239 1.7 0 
217 2 9.939 10.0417 1.7 0 
218 2 11.1815 12.194 1.7 0 
219 2 9.939 11.4764 1.7 0 
220 2 11.1815 9.32237 1.7 0 
221 2 12.4238 10.0416 1.7 0 
222 2 13.6662 12.1939 1.7 0 
223 2 12.4238 11.4764 1.7 0 
224 2 13.6662 9.32238 1.7 0 
225 2 14.9085 10.0416 1.7 0 
226 2 16.151 12.194 1.7 0 
227 2 14.9085 11.4764 1.7 0 
228 2 16.151 9.32235 1.7 0 
229 2 17.3933 10.0416 1.7 0 
230 2 18.6357 12.1939 1.7 0 
231 2 17.3933 11.4764 1.7 0 
232 2 18.6357 9.32239 1.7 0 
233 2 19.878 10.0417 1.7 0 
234 2 21.1205 12.194 1.7 0 
235 2 19.878 11.4764 1.7 0 
236 2 21.1205 9.32237 1.7 0 
237 2 22.3628 10.0416 1.7 0 
238 2 23.6052 12.1939 1.7 0 
239 2 22.3628 11.4764 1.7 0 
240 2 23.6052 9.32238 1.7 0 
241 2 24.8475 10.0416 1.7 0 
242 2 26.09 12.194 1.7 0 
243 2 24.8475 11.4764 1.7 0 
244 2 26.09 9.32235 1.7 0 
245 2 27.3323 10.0416 1.7 0 
246 2 28.5747 12.1939 1.7 0 
247 2 27.3323 11.4764 1.7 0 
248 2 28.5747 9.32239 1.7 0 
249 2 29.817 10.0417 1.7 0 
250 2 31.0595 12.194 1.7 0 
251 2 29.817 11.4764 1.7 0 
252 2 31.0595 9.32237 1.7 0 
253 2 32.3018 10.0416 1.7 0 
254 2 33.5442 12.1939 1.7 0 
255 2 32.3018 11.4764 1.7 0 
256 2 33.5442 9.32238 1.7 0 
257 2 34.7865 10.0416 1.7 0 
258 2 36.029 12.194 1.7 0 
259 2 34.7865 11.4764 1.7 0 
260 2 36.029 9.32235 1.7 0 
261 2 37.2713 10.0416 1.7 0 
262 2 38.5137 12.1939 1.7 0 
263 2 37.2713 11.4764 1.7 0 
264 2 38.5137 9.32239 1.7 0 
265 2 39.756 10.0417 1.7 0 
266 2 40.9985 12.194 1.7 0 
267 2 39.756 11.4764 1.7 0 
268 2 40.9985 9.32237 1.7 0 
269 2 42.2408 10.0416 1.7 0 
270 2 43.4832 12.1939 1.7 0 
271 2 42.2408 11.4764 1.7 0 
272 2 43.4832 9.32238 1.7 0 
273 2 44.7255 10.0416 1.7 0 
274 2 45.968 12.194 1.7 0 
275 2 44.7255 11.4764 1.7 0 
276 2 45.968 9.32235 1.7 0 
277 2 47.2103 10.0416 1.7 0 
278 2 48.4527 12.1939 1.7 0 
279 2 47.2103 11.4764 1.7 0 
280 2 48.4527 9.32239 1.7 0 
281 2 49.695 10.0417 1.7 0 
282 2 50.9375 12.194 1.7 0 
283 2 49.695 11.4764 1.7 0 
284 2 50.9375 9.32237 1.7 0 
285 2 52.1798 10.0416 1.7 0 
286 2 53.4222 12.1939 1.7 0 
287 2 52.1798 11.4764 1.7 0 
288 2 53.4222 9.32238 1.7 0 
289 2 54.6645 10.0416 1.7 0 
290 2 55.907 12.194 1.7 0 
291 2 54.6645 11.4764 1.7 0 
292 2 55.907 9.32235 1.7 0 
293 2 57.1493 10.0416 1.7 0 
294 2 58.3917 12.1939 1.7 0 
295 2 57.1493 11.4764 1.7 0 
296 2 58.3917 9.32239 1.7 0 
297 2 59.6341 10.0417 1.7 0 
298 2 60.8766 12.1939 1.7 0 
299 2 59.6341 11.4764 1.7 0 
300 2 60.8766 9.32243 1.7 0 
301 2 -0.000170504 14.3458 1.7 0 
302 2 1.24243 16.4976 1.7 0 
303 2 -0.000170505 15.7802 1.7 0 
304 2 1.24243 13.6284 1.7 0 
305 2 2.48457 14.3457 1.7 0 
306 2 3.72717 16.4978 1.7 0 
307 2 2.48457 15.7803 1.7 0 
308 2 3.72717 13.6282 1.7 0 
309 2 4.96939 14.3457 1.7 0 
310 2 6.21189 16.4977 1.7 0 
311 2 4.96939 15.7803 1.7 0 
312 2 6.21189 13.6283 1.7 0 
313 2 7.45427 14.3457 1.7 0 
314 2 8.69668 16.4977 1.7 0 
315 2 7.45427 15.7803 1.7 0 
316 2 8.69668 13.6283 1.7 0 
317 2 9.939 14.3457 1.7 0 
318 2 11.1815 16.4977 1.7 0 
319 2 9.939 15.7803 1.7 0 
320 2 11.1815 13.6283 1.7 0 
321 2 12.4238 14.3457 1.7 0 
322 2 13.6662 16.4977 1.7 0 
323 2 12.4238 15.7803 1.7 0 
324 2 13.6662 13.6283 1.7 0 
325 2 14.9085 14.3457 1.7 0 
326 2 16.151 16.4977 1.7 0 
327 2 14.9085 15.7803 1.7 0 
328 2 16.151 13.6283 1.7 0 
329 2 17.3933 14.3457 1.7 0 
330 2 18.6357 16.4977 1.7 0 
331 2 17.3933 15.7803 1.7 0 
332 2 18.6357 13.6283 1.7 0 
333 2 19.878 14.3457 1.7 0 
334 2 21.1205 16.4977 1.7 0 
335 2 19.878 15.7803 1.7 0 
336 2 21.1205 13.6283 1.7 0 
337 2 22.3628 14.3457 1.7 0 
338 2 23.6052 16.4977 1.7 0 
339 2 22.3628 15.7803 1.7 0 
340 2 23.6052 13.6283 1.7 0 
341 2 24.8475 14.3457 1.7 0 
342 2 26.09 16.4977 1.7 0 
343 2 24.8475 15.7803 1.7 0 
344 2 26.09 13.6283 1.7 0 
345 2 27.3323 14.3457 1.7 0 
346 2 28.5747 16.4977 1.7 0 
347 2 27.3323 15.7803 1.7 0 
348 2 28.5747 13.6283 1.7 0 
349 2 29.817 14.3457 1.7 0 
350 2 31.0595 16.4977 1.7 0 
351 2 29.817 15.7803 1.7 0 
352 2 31.0595 13.6283 1.7 0 
353 2 32.3018 14.3457 1.7 0 
354 2 33.5442 16.4977 1.7 0 
355 2 32.3018 15.7803 1.7 0 
356 2 33.5442 13.6283 1.7 0 
357 2 34.7865 14.3457 1.7 0 
358 2 36.029 16.4977 1.7 0 
359 2 34.7865 15.7803 1.7 0 
360 2 36.029 13.6283 1.7 0 
361 2 37.2713 14.3457 1.7 0 
362 2 38.5137 16.4977 1.7 0 
363 2 37.2713 15.7803 1.7 0 
364 2 38.5137 13.6283 1.7 0 
365 2 39.756 14.3457 1.7 0 
366 2 40.9985 16.4977 1.7 0 
367 2 39.756 15.7803 1.7 0 
368 2 40.9985 13.6283 1.7 0 
369 2 42.2408 14.3457 1.7 0 
370 2 43.4832 16.4977 1.7 0 
371 2 42.2408 15.7803 1.7 0 
372 2 43.4832 13.6283 1.7 0 
373 2 44.7255 14.3457 1.7 0 
374 2 45.968 16.4977 1.7 0 
375 2 44.7255 15.7803 1.7 0 
376 2 45.968 13.6283 1.7 0 
377 2 47.2103 14.3457 1.7 0 
378 2 48.4527 16.4977 1.7 0 
379 2 47.2103 15.7803 1.7 0 
380 2 48.4527 13.6283 1.7 0 
381 2 49.695 14.3457 1.7 0 
382 2 50.9375 16.4977 1.7 0 
383 2 49.695 15.7803 1.7 0 
384 2 50.9375 13.6283 1.7 0 
385 2 52.1798 14.3457 1.7 0 
386 2 53.4222 16.4977 1.7 0 
387 2 52.1798 15.7803 1.7 0 
388 2 53.4222 13.6283 1.7 0 
389 2 54.6645 14.3457 1.7 0 
390 2 55.907 16.4977 1.7 0 
391 2 54.6645 15.7803 1.7 0 
392 2 55.907 13.6283 1.7 0 
393 2 57.1493 14.3457 1.7 0 
394 2 58.3917 16.4977 1.7 0 
395 2 57.1493 15.7803 1.7 0 
396 2 58.3917 13.6283 1.7 0 
397 2 59.6341 14.3457 1.7 0 
398 2 60.8766 16.4976 1.7 0 
399 2 59.6341 15.7803 1.7 0 
400 2 60.8766 13.6284 1.7 0 
401 2 -0.000169762 18.6497 1.7 0 
402 2 1.24243 20.8011 1.7 0 
403 2 -0.000171226 20.0839 1.7 0 
404 2 1.24243 17.9321 1.7 0 
405 2 2.48457 18.6495 1.7 0 
406 2 3.72717 20.8013 1.7 0 
407 2 2.48457 20.084 1.7 0 
408 2 3.72717 17.932 1.7 0 
409 2 4.96939 18.6495 1.7 0 
410 2 6.21189 20.8012 1.7 0 
411 2 4.96939 20.0841 1.7 0 
412 2 6.21189 17.932 1.7 0 
413 2 7.45427 18.6496 1.7 0 
414 2 8.69667 20.8012 1.7 0 
415 2 7.45427 20.084 1.7 0 
416 2 8.69667 17.9321 1.7 0 
417 2 9.939 18.6496 1.7 0 
418 2 11.1815 20.8012 1.7 0 
419 2 9.939 20.084 1.7 0 
420 2 11.1815 17.932 1.7 0 
421 2 12.4238 18.6496 1.7 0 
422 2 13.6662 20.8012 1.7 0 
423 2 12.4238 20.084 1.7 0 
424 2 13.6662 17.9321 1.7 0 
425 2 14.9085 18.6496 1.7 0 
426 2 16.151 20.8012 1.7 0 
427 2 14.9085 20.084 1.7 0 
428 2 16.151 17.932 1.7 0 
429 2 17.3933 18.6496 1.7 0 
430 2 18.6357 20.8012 1.7 0 
431 2 17.3933 20.084 1.7 0 
432 2 18.6357 17.9321 1.7 0 
433 2 19.878 18.6496 1.7 0 
434 2 21.1205 20.8012 1.7 0 
435 2 19.878 20.084 1.7 0 
436 2 21.1205 17.932 1.7 0 
437 2 22.3628 18.6496 1.7 0 
438 2 23.6052 20.8012 1.7 0 
439 2 22.3628 20.084 1.7 0 
440 2 23.6052 17.9321 1.7 0 
441 2 24.8475 18.6496 1.7 0 
442 2 26.09 20.8012 1.7 0 
443 2 24.8475 20.084 1.7 0 
444 2 26.09 17.932 1.7 0 
445 2 27.3323 18.6496 1.7 0 
446 2 28.5747 20.8012 1.7 0 
447 2 27.3323 20.084 1.7 0 
448 2 28.5747 17.9321 1.7 0 
449 2 29.817 18.6496 1.7 0 
450 2 31.0595 20.8012 1.7 0 
451 2 29.817 20.084 1.7 0 
452 2 31.0595 17.932 1.7 0 
453 2 32.3018 18.6496 1.7 0 
454 2 33.5442 20.8012 1.7 0 
455 2 32.3018 20.084 1.7 0 
456 2 33.5442 17.9321 1.7 0 
457 2 34.7865 18.6496 1.7 0 
458 2 36.029 20.8012 1.7 0 
459 2 34.7865 20.084 1.7 0 
460 2 36.029 17.932 1.7 0 
461 2 37.2713 18.6496 1.7 0 
462 2 38.5137 20.8012 1.7 0 
463 2 37.2713 20.084 1.7 0 
464 2 38.5137 17.9321 1.7 0 
465 2 39.756 18.6496 1.7 0 
466 2 40.9985 20.8012 1.7 0 
467 2 39.756 20.084 1.7 0 
468 2 40.9985 17.932 1.7 0 
469 2 42.2408 18.6496 1.7 0 
470 2 43.4832 20.8012 1.7 0 
471 2 42.2408 20.084 1.7 0 
472 2 43.4832 17.9321 1.7 0 
473 2 44.7255 18.6496 1.7 0 
474 2 45.968 20.8012 1.7 0 
475 2 44.7255 20.084 1.7 0 
476 2 45.968 17.932 1.7 0 
477 2 47.2103 18.6496 1.7 0 
478 2 48.4527 20.8012 1.7 0 
479 2 47.2103 20.084 1.7 0 
480 2 48.4527 17.9321 1.7 0 
481 2 49.695 18.6496 1.7 0 
482 2 50.9375 20.8012 1.7 0 
483 2 49.695 20.084 1.7 0 
484 2 50.9375 17.932 1.7 0 
485 2 52.1798 18.6496 1.7 0 
486 2 53.4222 20.8012 1.7 0 
487 2 52.1798 20.084 1.7 0 
488 2 53.4222 17.9321 1.7 0 
489 2 54.6645 18.6496 1.7 0 
490 2 55.907 20.8012 1.7 0 
491 2 54.6645 20.084 1.7 0 
492 2 55.907 17.932 1.7 0 
493 2 57.1493 18.6495 1.7 0 
494 2 58.3917 20.8012 1.7 0 
495 2 57.1493 20.084 1.7 0 
496 2 58.3917 17.9321 1.7 0 
497 2 59.6341 18.6496 1.7 0 
498 2 60.8766 20.8011 1.7 0 
499 2 59.6341 20.084 1.7 0 
500 2 60.8766 17.9321 1.7 0 
501 2 -0.000170935 22.953 1.7 0 
502 2 1.24243 25.105 1.7 0 
503 2 -0.000169584 24.3877 1.7 0 
504 2 1.24243 22.2361 1.7 0 
505 2 2.48457 22.9529 1.7 0 
506 2 3.72717 25.1051 1.7 0 
507 2 2.48457 24.3879 1.7 0 
508 2 3.72717 22.236 1.7 0 
509 2 4.96939 22.9529 1.7 0 
510 2 6.21189 25.105 1.7 0 
511 2 4.96939 24.3879 1.7 0 
512 2 6.21189 22.236 1.7 0 
513 2 7.45427 22.9529 1.7 0 
514 2 8.69667 25.105 1.7 0 
515 2 7.45427 24.3878 1.7 0 
516 2 8.69667 22.2361 1.7 0 
517 2 9.939 22.953 1.7 0 
518 2 11.1815 25.105 1.7 0 
519 2 9.939 24.3878 1.7 0 
520 2 11.1815 22.236 1.7 0 
521 2 12.4238 22.9529 1.7 0 
522 2 13.6662 25.105 1.7 0 
523 2 12.4238 24.3878 1.7 0 
524 2 13.6662 22.2361 1.7 0 
525 2 14.9085 22.953 1.7 0 
526 2 16.151 25.105 1.7 0 
527 2 14.9085 24.3878 1.7 0 
528 2 16.151 22.236 1.7 0 
529 2 17.3933 22.9529 1.7 0 
530 2 18.6357 25.105 1.7 0 
531 2 17.3933 24.3878 1.7 0 
532 2 18.6357 22.2361 1.7 0 
533 2 19.878 22.953 1.7 0 
534 2 21.1205 25.105 1.7 0 
535 2 19.878 24.3878 1.7 0 
536 2 21.1205 22.236 1.7 0 
537 2 22.3628 22.9529 1.7 0 
538 2 23.6052 25.105 1.7 0 
539 2 22.3628 24.3878 1.7 0 
540 2 23.6052 22.2361 1.7 0 
541 2 24.8475 22.953 1.7 0 
542 2 26.09 25.105 1.7 0 
543 2 24.8475 24.3878 1.7 0 
544 2 26.09 22.236 1.7 0 
545 2 27.3323 22.9529 1.7 0 
546 2 28.5747 25.105 1.7 0 
547 2 27.3323 24.3878 1.7 0 
548 2 28.5747 22.2361 1.7 0 
549 2 29.817 22.953 1.7 0 
550 2 31.0595 25.105 1.7 0 
551 2 29.817 24.3878 1.7 0 
552 2 31.0595 22.236 1.7 0 
553 2 32.3018 22.9529 1.7 0 
554 2 33.5442 25.105 1.7 0 
555 2 32.3018 24.3878 1.7 0 
556 2 33.5442 22.2361 1.7 0 
557 2 34.7865 22.953 1.7 0 
558 2 36.029 25.105 1.7 0 
559 2 34.7865 24.3878 1.7 0 
560 2 36.029 22.236 1.7 0 
561 2 37.2713 22.9529 1.7 0 
562 2 38.5137 25.105 1.7 0 
563 2 37.2713 24.3878 1.7 0 
564 2 38.5137 22.2361 1.7 0 
565 2 39.756 22.953 1.7 0 
566 2 40.9985 25.105 1.7 0 
567 2 39.756 24.3878 1.7 0 
568 2 40.9985 22.236 1.7 0 
569 2 42.2408 22.9529 1.7 0 
570 2 43.4832 25.105 1.7 0 
571 2 42.2408 24.3878 1.7 0 
572 2 43.4832 22.2361 1.7 0 
573 2 44.7255 22.953 1.7 0 
574 2 45.968 25.105 1.7 0 
575 2 44.7255 24.3878 1.7 0 
576 2 45.968 22.236 1.7 0 
577 2 47.2103 22.9529 1.7 0 
578 2 48.4527 25.105 1.7 0 
579 2 47.2103 24.3878 1.7 0 
580 2 48.4527 22.2361 1.7 0 
581 2 49.695 22.953 1.7 0 
582 2 50.9375 25.105 1.7 0 
583 2 49.695 24.3878 1.7 0 
584 2 50.9375 22.236 1.7 0 
585 2 52.1798 22.9529 1.7 0 
586 2 53.4222 25.105 1.7 0 
587 2 52.1798 24.3878 1.7 0 
588 2 53.4222 22.2361 1.7 0 
589 2 54.6645 22.953 1.7 0 
590 2 55.907 25.105 1.7 0 
591 2 54.6645 24.3878 1.7 0 
592 2 55.907 22.236 1.7 0 
593 2 57.1493 22.9529 1.7 0 
594 2 58.3917 25.105 1.7 0 
595 2 57.1493 24.3878 1.7 0 
596 2 58.3917 22.2361 1.7 0 
597 2 59.6341 22.953 1.7 0 
598 2 60.8766 25.1049 1.7 0 
599 2 59.6341 24.3878 1.7 0 
600 2 60.8766 22.2361 1.7 0 
601 2 -0.000171677 27.257 1.7 0 
602 2 1.24243 29.4087 1.7 0 
603 2 -0.000169731 28.6912 1.7 0 
604 2 1.24243 26.5395 1.7 0 
605 2 2.48457 27.2569 1.7 0 
606 2 3.72717 29.4088 1.7 0 
607 2 2.48457 28.6914 1.7 0 
608 2 3.72717 26.5393 1.7 0 
609 2 4.96939 27.2569 1.7 0 
610 2 6.21189 29.4087 1.7 0 
611 2 4.96939 28.6914 1.7 0 
612 2 6.21189 26.5394 1.7 0 
613 2 7.45427 27.2569 1.7 0 
614 2 8.69668 29.4087 1.7 0 
615 2 7.45427 28.6913 1.7 0 
616 2 8.69668 26.5395 1.7 0 
617 2 9.939 27.257 1.7 0 
618 2 11.1815 29.4087 1.7 0 
619 2 9.939 28.6913 1.7 0 
620 2 11.1815 26.5394 1.7 0 
621 2 12.4238 27.2569 1.7 0 
622 2 13.6662 29.4087 1.7 0 
623 2 12.4238 28.6913 1.7 0 
624 2 13.6662 26.5394 1.7 0 
625 2 14.9085 27.257 1.7 0 
626 2 16.151 29.4087 1.7 0 
627 2 14.9085 28.6913 1.7 0 
628 2 16.151 26.5394 1.7 0 
629 2 17.3933 27.2569 1.7 0 
630 2 18.6357 29.4087 1.7 0 
631 2 17.3933 28.6913 1.7 0 
632 2 18.6357 26.5394 1.7 0 
633 2 19.878 27.257 1.7 0 
634 2 21.1205 29.4087 1.7 0 
635 2 19.878 28.6913 1.7 0 
636 2 21.1205 26.5394 1.7 0 
637 2 22.3628 27.2569 1.7 0 
638 2 23.6052 29.4087 1.7 0 
639 2 22.3628 28.6913 1.7 0 
640 2 23.6052 26.5394 1.7 0 
641 2 24.8475 27.257 1.7 0 
642 2 26.09 29.4087 1.7 0 
643 2 24.8475 28.6913 1.7 0 
644 2 26.09 26.5394 1.7 0 
645 2 27.3323 27.2569 1.7 0 
646 2 28.5747 29.4087 1.7 0 
647 2 27.3323 28.6913 1.7 0 
648 2 28.5747 26.5394 1.7 0 
649 2 29.817 27.257 1.7 0 
650 2 31.0595 29.4087 1.7 0 
651 2 29.817 28.6913 1.7 0 
652 2 31.0595 26.5394 1.7 0 
653 2 32.3018 27.2569 1.7 0 
654 2 33.5442 29.4087 1.7 0 
655 2 32.3018 28.6913 1.7 0 
656 2 33.5442 26.5394 1.7 0 
657 2 34.7865 27.257 1.7 0 
658 2 36.029 29.4087 1.7 0 
659 2 34.7865 28.6913 1.7 0 
660 2 36.029 26.5394 1.7 0 
661 2 37.2713 27.2569 1.7 0 
662 2 38.5137 29.4087 1.7 0 
663 2 37.2713 28.6913 1.7 0 
664 2 38.5137 26.5394 1.7 0 
665 2 39.756 27.257 1.7 0 
666 2 40.9985 29.4087 1.7 0 
667 2 39.756 28.6913 1.7 0 
668 2 40.9985 26.5394 1.7 0 
669 2 42.2408 27.2569 1.7 0 
670 2 43.4832 29.4087 1.7 0 
671 2 42.2408 28.6913 1.7 0 
672 2 43.4832 26.5394 1.7 0 
673 2 44.7255 27.257 1.7 0 
674 2 45.968 29.4087 1.7 0 
675 2 44.7255 28.6913 1.7 0 
676 2 45.968 26.5394 1.7 0 
677 2 47.2103 27.2569 1.7 0 
678 2 48.4527 29.4087 1.7 0 
679 2 47.2103 28.6913 1.7 0 
680 2 48.4527 26.5394 1.7 0 
681 2 49.695 27.257 1.7 0 
682 2 50.9375 29.4087 1.7 0 
683 2 49.695 28.6913 1.7 0 
684 2 50.9375 26.5394 1.7 0 
685 2 52.1798 27.2569 1.7 0 
686 2 53.4222 29.4087 1.7 0 
687 2 52.1798 28.6913 1.7 0 
688 2 53.4222 26.5394 1.7 0 
689 2 54.6645 27.257 1.7 0 
690 2 55.907 29.4087 1.7 0 
691 2 54.6645 28.6913 1.7 0 
692 2 55.907 26.5394 1.7 0 
693 2 57.1493 27.2569 1.7 0 
694 2 58.3917 29.4087 1.7 0 
695 2 57.1493 28.6913 1.7 0 
696 2 58.3917 26.5394 1.7 0 
697 2 59.6341 27.257 1.7 0 
698 2 60.8766 29.4087 1.7 0 
699 2 59.6341 28.6913 1.7 0 
700 2 60.8766 26.5395 1.7 0 
701 2 -0.000169735 31.5608 1.7 0 
702 2 1.24243 33.7125 1.7 0 
703 2 -0.000171674 32.995 1.7 0 
704 2 1.24243 30.8433 1.7 0 
705 2 2.48457 31.5606 1.7 0 
706 2 3.72717 33.7127 1.7 0 
707 2 2.48457 32.9951 1.7 0 
708 2 3.72717 30.8432 1.7 0 
709 2 4.96939 31.5606 1.7 0 
710 2 6.21189 33.7126 1.7 0 
711 2 4.96939 32.9951 1.7 0 
712 2 6.21189 30.8433 1.7 0 
713 2 7.45427 31.5607 1.7 0 
714 2 8.69668 33.7125 1.7 0 
715 2 7.45427 32.9951 1.7 0 
716 2 8.69668 30.8433 1.7 0 
717 2 9.939 31.5607 1.7 0 
718 2 11.1815 33.7126 1.7 0 
719 2 9.939 32.995 1.7 0 
720 2 11.1815 30.8433 1.7 0 
721 2 12.4238 31.5607 1.7 0 
722 2 13.6662 33.7126 1.7 0 
723 2 12.4238 32.9951 1.7 0 
724 2 13.6662 30.8433 1.7 0 
725 2 14.9085 31.5607 1.7 0 
726 2 16.151 33.7126 1.7 0 
727 2 14.9085 32.995 1.7 0 
728 2 16.151 30.8433 1.7 0 
729 2 17.3933 31.5607 1.7 0 
730 2 18.6357 33.7126 1.7 0 
731 2 17.3933 32.9951 1.7 0 
732 2 18.6357 30.8433 1.7 0 
733 2 19.878 31.5607 1.7 0 
734 2 21.1205 33.7126 1.7 0 
735 2 19.878 32.995 1.7 0 
736 2 21.1205 30.8433 1.7 0 
737 2 22.3628 31.5607 1.7 0 
738 2 23.6052 33.7126 1.7 0 
739 2 22.3628 32.9951 1.7 0 
740 2 23.6052 30.8433 1.7 0 
741 2 24.8475 31.5607 1.7 0 
742 2 26.09 33.7126 1.7 0 
743 2 24.8475 32.995 1.7 0 
744 2 26.09 30.8433 1.7 0 
745 2 27.3323 31.5607 1.7 0 
746 2 28.5747 33.7126 1.7 0 
747 2 27.3323 32.9951 1.7 0 
748 2 28.5747 30.8433 1.7 0 
749 2 29.817 31.5607 1.7 0 
750 2 31.0595 33.7126 1.7 0 
751 2 29.817 32.995 1.7 0 
752 2 31.0595 30.8433 1.7 0 
753 2 32.3018 31.5607 1.7 0 
754 2 33.5442 33.7126 1.7 0 
755 2 32.3018 32.9951 1.7 0 
756 2 33.5442 30.8433 1.7 0 
757 2 34.7865 31.5607 1.7 0 
758 2 36.029 33.7126 1.7 0 
759 2 34.7865 32.995 1.7 0 
760 2 36.029 30.8433 1.7 0 
761 2 37.2713 31.5607 1.7 0 
762 2 38.5137 33.7126 1.7 0 
763 2 37.2713 32.9951 1.7 0 
764 2 38.5137 30.8433 1.7 0 
765 2 39.756 31.5607 1.7 0 
766 2 40.9985 33.7126 1.7 0 
767 2 39.756 32.995 1.7 0 
768 2 40.9985 30.8433 1.7 0 
769 2 42.2408 31.5607 1.7 0 
770 2 43.4832 33.7126 1.7 0 
771 2 42.2408 32.9951 1.7 0 
772 2 43.4832 30.8433 1.7 0 
773 2 44.7255 31.5607 1.7 0 
774 2 45.968 33.7126 1.7 0 
775 2 44.7255 32.995 1.7 0 
776 2 45.968 30.8433 1.7 0 
777 2 47.2103 31.5607 1.7 0 
778 2 48.4527 33.7126 1.7 0 
779 2 47.2103 32.9951 1.7 0 
780 2 48.4527 30.8433 1.7 0 
781 2 49.695 31.5607 1.7 0 
782 2 50.9375 33.7126 1.7 0 
783 2 49.695 32.995 1.7 0 
784 2 50.9375 30.8433 1.7 0 
785 2 52.1798 31.5607 1.7 0 
786 2 53.4222 33.7126 1.7 0 
787 2 52.1798 32.9951 1.7 0 
788 2 53.4222 30.8433 1.7 0 
789 2 54.6645 31.5607 1.7 0 
790 2 55.907 33.7126 1.7 0 
791 2 54.6645 32.995 1.7 0 
792 2 55.907 30.8433 1.7 0 
793 2 57.1493 31.5607 1.7 0 
794 2 58.3917 33.7126 1.7 0 
795 2 57.1493 32.9951 1.7 0 
796 2 58.3917 30.8433 1.7 0 
797 2 59.6341 31.5607 1.7 0 
798 2 60.8766 33.7125 1.7 0 
799 2 59.6341 32.995 1.7 0 
800 2 60.8766 30.8433 1.7 0 
801 2 -0.000169582 35.8643 1.7 0 
802 2 1.24243 38.0159 1.7 0 
803 2 -0.000170937 37.299 1.7 0 
804 2 1.24243 35.147 1.7 0 
805 2 2.48457 35.8641 1.7 0 
806 2 3.72717 38.016 1.7 0 
807 2 2.48457 37.2991 1.7 0 
808 2 3.72717 35.1469 1.7 0 
809 2 4.96939 35.8641 1.7 0 
810 2 6.21189 38.016 1.7 0 
811 2 4.96939 37.2991 1.7 0 
812 2 6.21189 35.147 1.7 0 
813 2 7.45427 35.8642 1.7 0 
814 2 8.69667 38.0159 1.7 0 
815 2 7.45427 37.2991 1.7 0 
816 2 8.69667 35.147 1.7 0 
817 2 9.939 35.8642 1.7 0 
818 2 11.1815 38.016 1.7 0 
819 2 9.939 37.299 1.7 0 
820 2 11.1815 35.147 1.7 0 
821 2 12.4238 35.8642 1.7 0 
822 2 13.6662 38.0159 1.7 0 
823 2 12.4238 37.2991 1.7 0 
824 2 13.6662 35.147 1.7 0 
825 2 14.9085 35.8642 1.7 0 
826 2 16.151 38.016 1.7 0 
827 2 14.9085 37.299 1.7 0 
828 2 16.151 35.147 1.7 0 
829 2 17.3933 35.8642 1.7 0 
830 2 18.6357 38.0159 1.7 0 
831 2 17.3933 37.2991 1.7 0 
832 2 18.6357 35.147 1.7 0 
833 2 19.878 35.8642 1.7 0 
834 2 21.1205 38.016 1.7 0 
835 2 19.878 37.299 1.7 0 
836 2 21.1205 35.147 1.7 0 
837 2 22.3628 35.8642 1.7 0 
838 2 23.6052 38.0159 1.7 0 
839 2 22.3628 37.2991 1.7 0 
840 2 23.6052 35.147 1.7 0 
841 2 24.8475 35.8642 1.7 0 
842 2 26.09 38.016 1.7 0 
843 2 24.8475 37.299 1.7 0 
844 2 26.09 35.147 1.7 0 
845 2 27.3323 35.8642 1.7 0 
846 2 28.5747 38.0159 1.7 0 
847 2 27.3323 37.2991 1.7 0 
848 2 28.5747 35.147 1.7 0 
849 2 29.817 35.8642 1.7 0 
850 2 31.0595 38.016 1.7 0 
851 2 29.817 37.299 1.7 0 
852 2 31.0595 35.147 1.7 0 
853 2 32.3018 35.8642 1.7 0 
854 2 33.5442 38.0159 1.7 0 
855 2 32.3018 37.2991 1.7 0 
856 2 33.5442 35.147 1.7 0 
857 2 34.7865 35.8642 1.7 0 
858 2 36.029 38.016 1.7 0 
859 2 34.7865 37.299 1.7 0 
860 2 36.029 35.147 1.7 0 
861 2 37.2713 35.8642 1.7 0 
862 2 38.5137 38.0159 1.7 0 
863 2 37.2713 37.2991 1.7 0 
864 2 38.5137 35.147 1.7 0 
865 2 39.756 35.8642 1.7 0 
866 2 40.9985 38.016 1.7 0 
867 2 39.756 37.299 1.7 0 
868 2 40.9985 35.147 1.7 0 
869 2 42.2408 35.8642 1.7 0 
870 2 43.4832 38.0159 1.7 0 
871 2 42.2408 37.2991 1.7 0 
872 2 43.4832 35.147 1.7 0 
873 2 44.7255 35.8642 1.7 0 
874 2 45.968 38.016 1.7 0 
875 2 44.7255 37.299 1.7 0 
876 2 45.968 35.147 1.7 0 
877 2 47.2103 35.8642 1.7 0 
878 2 48.4527 38.0159 1.7 0 
879 2 47.2103 37.2991 1.7 0 
880 2 48.4527 35.147 1.7 0 
881 2 49.695 35.8642 1.7 0 
882 2 50.9375 38.016 1.7 0 
883 2 49.695 37.299 1.7 0 
884 2 50.9375 35.147 1.7 0 
885 2 52.1798 35.8642 1.7 0 
886 2 53.4222 38.0159 1.7 0 
887 2 52.1798 37.2991 1.7 0 
888 2 53.4222 35.147 1.7 0 
889 2 54.6645 35.8642 1.7 0 
890 2 55.907 38.016 1.7 0 
891 2 54.6645 37.299 1.7 0 
892 2 55.907 35.147 1.7 0 
893 2 57.1493 35.8642 1.7 0 
894 2 58.3917 38.0159 1.7 0 
895 2 57.1493 37.2991 1.7 0 
896 2 58.3917 35.147 1.7 0 
897 2 59.6341 35.8642 1.7 0 
898 2 60.8766 38.0159 1.7 0 
899 2 59.6341 37.299 1.7 0 
900 2 60.8766 35.1471 1.7 0 
901 2 -0.000171227 40.1681 1.7 0 
902 2 1.24243 42.3199 1.7 0 
903 2 -0.000169759 41.6023 1.7 0 
904 2 1.24243 39.4509 1.7 0 
905 2 2.48457 40.168 1.7 0 
906 2 3.72717 42.32 1.7 0 
907 2 2.48457 41.6025 1.7 0 
908 2 3.72717 39.4507 1.7 0 
909 2 4.96939 40.1679 1.7 0 
910 2 6.21189 42.32 1.7 0 
911 2 4.96939 41.6025 1.7 0 
912 2 6.21189 39.4508 1.7 0 
913 2 7.45427 40.168 1.7 0 
914 2 8.69667 42.3199 1.7 0 
915 2 7.45427 41.6024 1.7 0 
916 2 8.69667 39.4508 1.7 0 
917 2 9.939 40.168 1.7 0 
918 2 11.1815 42.32 1.7 0 
919 2 9.939 41.6024 1.7 0 
920 2 11.1815 39.4508 1.7 0 
921 2 12.4238 40.168 1.7 0 
922 2 13.6662 42.3199 1.7 0 
923 2 12.4238 41.6024 1.7 0 
924 2 13.6662 39.4508 1.7 0 
925 2 14.9085 40.168 1.7 0 
926 2 16.151 42.32 1.7 0 
927 2 14.9085 41.6024 1.7 0 
928 2 16.151 39.4508 1.7 0 
929 2 17.3933 40.168 1.7 0 
930 2 18.6357 42.3199 1.7 0 
931 2 17.3933 41.6024 1.7 0 
932 2 18.6357 39.4508 1.7 0 
933 2 19.878 40.168 1.7 0 
934 2 21.1205 42.32 1.7 0 
935 2 19.878 41.6024 1.7 0 
936 2 21.1205 39.4508 1.7 0 
937 2 22.3628 40.168 1.7 0 
938 2 23.6052 42.3199 1.7 0 
939 2 22.3628 41.6024 1.7 0 
940 2 23.6052 39.4508 1.7 0 
941 2 24.8475 40.168 1.7 0 
942 2 26.09 42.32 1.7 0 
943 2 24.8475 41.6024 1.7 0 
944 2 26.09 39.4508 1.7 0 
945 2 27.3323 40.168 1.7 0 
946 2 28.5747 42.3199 1.7 0 
947 2 27.3323 41.6024 1.7 0 
948 2 28.5747 39.4508 1.7 0 
949 2 29.817 40.168 1.7 0 
950 2 31.0595 42.32 1.7 0 
951 2 29.817 41.6024 1.7 0 
952 2 31.0595 39.4508 1.7 0 
953 2 32.3018 40.168 1.7 0 
954 2 33.5442 42.3199 1.7 0 
955 2 32.3018 41.6024 1.7 0 
956 2 33.5442 39.4508 1.7 0 
957 2 34.7865 40.168 1.7 0 
958 2 36.029 42.32 1.7 0 
959 2 34.7865 41.6024 1.7 0 
960 2 36.029 39.4508 1.7 0 
961 2 37.2713 40.168 1.7 0 
962 2 38.5137 42.3199 1.7 0 
963 2 37.2713 41.6024 1.7 0 
964 2 38.5137 39.4508 1.7 0 
965 2 39.756 40.168 1.7 0 
966 2 40.9985 42.32 1.7 0 
967 2 39.756 41.6024 1.7 0 
968 2 40.9985 39.4508 1.7 0 
969 2 42.2408 40.168 1.7 0 
970 2 43.4832 42.3199 1.7 0 
971 2 42.2408 41.6024 1.7 0 
972 2 43.4832 39.4508 1.7 0 
973 2 44.7255 40.168 1.7 0 
974 2 45.968 42.32 1.7 0 
975 2 44.7255 41.6024 1.7 0 
976 2 45.968 39.4508 1.7 0 
977 2 47.2103 40.168 1.7 0 
978 2 48.4527 42.3199 1.7 0 
979 2 47.2103 41.6024 1.7 0 
980 2 48.4527 39.4508 1.7 0 
981 2 49.695 40.168 1.7 0 
982 2 50.9375 42.32 1.7 0 
983 2 49.695 41.6024 1.7 0 
984 2 50.9375 39.4508 1.7 0 
985 2 52.1798 40.168 1.7 0 
986 2 53.4222 42.3199 1.7 0 
987 2 52.1798 41.6024 1.7 0 
988 2 53.4222 39.4508 1.7 0 
989 2 54.6645 40.168 1.7 0 
990 2 55.907 42.32 1.7 0 
991 2 54.6645 41.6024 1.7 0 
992 2 55.907 39.4508 1.7 0 
993 2 57.1493 40.168 1.7 0 
994 2 58.3917 42.3199 1.7 0 
995 2 57.1493 41.6025 1.7 0 
996 2 58.3917 39.4508 1.7 0 
997 2 59.6341 40.168 1.7 0 
998 2 60.8766 42.3199 1.7 0 
999 2 59.6341 41.6024 1.7 0 
1000 2 60.8766 39.4509 1.7 0 
1001 2 -0.00017051 44.4718 1.7 0 
1002 2 1.24243 46.6236 1.7 0 
1003 2 -0.000170501 45.9062 1.7 0 
1004 2 1.24243 43.7544 1.7 0 
1005 2 2.48457 44.4717 1.7 0 
1006 2 3.72717 46.6238 1.7 0 
1007 2 2.48457 45.9063 1.7 0 
1008 2 3.72717 43.7542 1.7 0 
1009 2 4.96939 44.4717 1.7 0 
1010 2 6.21189 46.6237 1.7 0 
1011 2 4.96939 45.9063 1.7 0 
1012 2 6.21189 43.7543 1.7 0 
1013 2 7.45427 44.4717 1.7 0 
1014 2 8.69668 46.6237 1.7 0 
1015 2 7.45427 45.9063 1.7 0 
1016 2 8.69668 43.7543 1.7 0 
1017 2 9.939 44.4717 1.7 0 
1018 2 11.1815 46.6237 1.7 0 
1019 2 9.939 45.9063 1.7 0 
1020 2 11.1815 43.7543 1.7 0 
1021 2 12.4238 44.4717 1.7 0 
1022 2 13.6662 46.6237 1.7 0 
1023 2 12.4238 45.9063 1.7 0 
1024 2 13.6662 43.7543 1.7 0 
1025 2 14.9085 44.4717 1.7 0 
1026 2 16.151 46.6237 1.7 0 
1027 2 14.9085 45.9063 1.7 0 
1028 2 16.151 43.7543 1.7 0 
1029 2 17.3933 44.4717 1.7 0 
1030 2 18.6357 46.6237 1.7 0 
1031 2 17.3933 45.9063 1.7 0 
1032 2 18.6357 43.7543 1.7 0 
1033 2 19.878 44.4717 1.7 0 
1034 2 21.1205 46.6237 1.7 0 
1035 2 19.878 45.9063 1.7 0 
1036 2 21.1205 43.7543 1.7 0 
1037 2 22.3628 44.4717 1.7 0 
1038 2 23.6052 46.6237 1.7 0 
1039 2 22.3628 45.9063 1.7 0 