# LAMMPS data file written by OVITO
5000 atoms
3 atom types
-0.6215 61.497499 xlo xhi
-0.007003 215.492997 ylo yhi
-3.3 6.7 zlo zhi

Atoms # atomic

1 2 0.0 1.435 1.7
2 2 1.242 3.586 1.7
3 2 0.0 2.869 1.7
4 2 1.242 0.717 1.7
5 2 2.485 1.435 1.7
6 2 3.727 3.586 1.7
7 2 2.485 2.869 1.7
8 2 3.727 0.717 1.7
9 2 4.97 1.435 1.7
10 2 6.212 3.586 1.7
11 2 4.97 2.869 1.7
12 2 6.212 0.717 1.7
13 2 7.454 1.435 1.7
14 2 8.697 3.586 1.7
15 2 7.454 2.869 1.7
16 2 8.697 0.717 1.7
17 2 9.939 1.435 1.7
18 2 11.181 3.586 1.7
19 2 9.939 2.869 1.7
20 2 11.181 0.717 1.7
21 2 12.424 1.435 1.7
22 2 13.666 3.586 1.7
23 2 12.424 2.869 1.7
24 2 13.666 0.717 1.7
25 2 14.909 1.435 1.7
26 2 16.150999 3.586 1.7
27 2 14.909 2.869 1.7
28 2 16.150999 0.717 1.7
29 2 17.393 1.435 1.7
30 2 18.636 3.586 1.7
31 2 17.393 2.869 1.7
32 2 18.636 0.717 1.7
33 2 19.878 1.435 1.7
34 2 21.120001 3.586 1.7
35 2 19.878 2.869 1.7
36 2 21.120001 0.717 1.7
37 2 22.363001 1.435 1.7
38 2 23.605 3.586 1.7
39 2 22.363001 2.869 1.7
40 2 23.605 0.717 1.7
41 2 24.848 1.435 1.7
42 2 26.09 3.586 1.7
43 2 24.848 2.869 1.7
44 2 26.09 0.717 1.7
45 2 27.332001 1.435 1.7
46 2 28.575001 3.586 1.7
47 2 27.332001 2.869 1.7
48 2 28.575001 0.717 1.7
49 2 29.816999 1.435 1.7
50 2 31.059 3.586 1.7
51 2 29.816999 2.869 1.7
52 2 31.059 0.717 1.7
53 2 32.301998 1.435 1.7
54 2 33.543999 3.586 1.7
55 2 32.301998 2.869 1.7
56 2 33.543999 0.717 1.7
57 2 34.786999 1.435 1.7
58 2 36.028999 3.586 1.7
59 2 34.786999 2.869 1.7
60 2 36.028999 0.717 1.7
61 2 37.271 1.435 1.7
62 2 38.514 3.586 1.7
63 2 37.271 2.869 1.7
64 2 38.514 0.717 1.7
65 2 39.756001 1.435 1.7
66 2 40.998001 3.586 1.7
67 2 39.756001 2.869 1.7
68 2 40.998001 0.717 1.7
69 2 42.241001 1.435 1.7
70 2 43.483002 3.586 1.7
71 2 42.241001 2.869 1.7
72 2 43.483002 0.717 1.7
73 2 44.726002 1.435 1.7
74 2 45.967999 3.586 1.7
75 2 44.726002 2.869 1.7
76 2 45.967999 0.717 1.7
77 2 47.209999 1.435 1.7
78 2 48.452999 3.586 1.7
79 2 47.209999 2.869 1.7
80 2 48.452999 0.717 1.7
81 2 49.695 1.435 1.7
82 2 50.937 3.586 1.7
83 2 49.695 2.869 1.7
84 2 50.937 0.717 1.7
85 2 52.18 1.435 1.7
86 2 53.422001 3.586 1.7
87 2 52.18 2.869 1.7
88 2 53.422001 0.717 1.7
89 2 54.665001 1.435 1.7
90 2 55.907001 3.586 1.7
91 2 54.665001 2.869 1.7
92 2 55.907001 0.717 1.7
93 2 57.148998 1.435 1.7
94 2 58.391998 3.586 1.7
95 2 57.148998 2.869 1.7
96 2 58.391998 0.717 1.7
97 2 59.633999 1.435 1.7
98 2 60.875999 3.586 1.7
99 2 59.633999 2.869 1.7
100 2 60.875999 0.717 1.7
101 2 0.0 5.738 1.7
102 2 1.242 7.89 1.7
103 2 0.0 7.173 1.7
104 2 1.242 5.021 1.7
105 2 2.485 5.738 1.7
106 2 3.727 7.89 1.7
107 2 2.485 7.173 1.7
108 2 3.727 5.021 1.7
109 2 4.97 5.738 1.7
110 2 6.212 7.89 1.7
111 2 4.97 7.173 1.7
112 2 6.212 5.021 1.7
113 2 7.454 5.738 1.7
114 2 8.697 7.89 1.7
115 2 7.454 7.173 1.7
116 2 8.697 5.021 1.7
117 2 9.939 5.738 1.7
118 2 11.181 7.89 1.7
119 2 9.939 7.173 1.7
120 2 11.181 5.021 1.7
121 2 12.424 5.738 1.7
122 2 13.666 7.89 1.7
123 2 12.424 7.173 1.7
124 2 13.666 5.021 1.7
125 2 14.909 5.738 1.7
126 2 16.150999 7.89 1.7
127 2 14.909 7.173 1.7
128 2 16.150999 5.021 1.7
129 2 17.393 5.738 1.7
130 2 18.636 7.89 1.7
131 2 17.393 7.173 1.7
132 2 18.636 5.021 1.7
133 2 19.878 5.738 1.7
134 2 21.120001 7.89 1.7
135 2 19.878 7.173 1.7
136 2 21.120001 5.021 1.7
137 2 22.363001 5.738 1.7
138 2 23.605 7.89 1.7
139 2 22.363001 7.173 1.7
140 2 23.605 5.021 1.7
141 2 24.848 5.738 1.7
142 2 26.09 7.89 1.7
143 2 24.848 7.173 1.7
144 2 26.09 5.021 1.7
145 2 27.332001 5.738 1.7
146 2 28.575001 7.89 1.7
147 2 27.332001 7.173 1.7
148 2 28.575001 5.021 1.7
149 2 29.816999 5.738 1.7
150 2 31.059 7.89 1.7
151 2 29.816999 7.173 1.7
152 2 31.059 5.021 1.7
153 2 32.301998 5.738 1.7
154 2 33.543999 7.89 1.7
155 2 32.301998 7.173 1.7
156 2 33.543999 5.021 1.7
157 2 34.786999 5.738 1.7
158 2 36.028999 7.89 1.7
159 2 34.786999 7.173 1.7
160 2 36.028999 5.021 1.7
161 2 37.271 5.738 1.7
162 2 38.514 7.89 1.7
163 2 37.271 7.173 1.7
164 2 38.514 5.021 1.7
165 2 39.756001 5.738 1.7
166 2 40.998001 7.89 1.7
167 2 39.756001 7.173 1.7
168 2 40.998001 5.021 1.7
169 2 42.241001 5.738 1.7
170 2 43.483002 7.89 1.7
171 2 42.241001 7.173 1.7
172 2 43.483002 5.021 1.7
173 2 44.726002 5.738 1.7
174 2 45.967999 7.89 1.7
175 2 44.726002 7.173 1.7
176 2 45.967999 5.021 1.7
177 2 47.209999 5.738 1.7
178 2 48.452999 7.89 1.7
179 2 47.209999 7.173 1.7
180 2 48.452999 5.021 1.7
181 2 49.695 5.738 1.7
182 2 50.937 7.89 1.7
183 2 49.695 7.173 1.7
184 2 50.937 5.021 1.7
185 2 52.18 5.738 1.7
186 2 53.422001 7.89 1.7
187 2 52.18 7.173 1.7
188 2 53.422001 5.021 1.7
189 2 54.665001 5.738 1.7
190 2 55.907001 7.89 1.7
191 2 54.665001 7.173 1.7
192 2 55.907001 5.021 1.7
193 2 57.148998 5.738 1.7
194 2 58.391998 7.89 1.7
195 2 57.148998 7.173 1.7
196 2 58.391998 5.021 1.7
197 2 59.633999 5.738 1.7
198 2 60.875999 7.89 1.7
199 2 59.633999 7.173 1.7
200 2 60.875999 5.021 1.7
201 2 0.0 10.042 1.7
202 2 1.242 12.194 1.7
203 2 0.0 11.477 1.7
204 2 1.242 9.325 1.7
205 2 2.485 10.042 1.7
206 2 3.727 12.194 1.7
207 2 2.485 11.477 1.7
208 2 3.727 9.325 1.7
209 2 4.97 10.042 1.7
210 2 6.212 12.194 1.7
211 2 4.97 11.477 1.7
212 2 6.212 9.325 1.7
213 2 7.454 10.042 1.7
214 2 8.697 12.194 1.7
215 2 7.454 11.477 1.7
216 2 8.697 9.325 1.7
217 2 9.939 10.042 1.7
218 2 11.181 12.194 1.7
219 2 9.939 11.477 1.7
220 2 11.181 9.325 1.7
221 2 12.424 10.042 1.7
222 2 13.666 12.194 1.7
223 2 12.424 11.477 1.7
224 2 13.666 9.325 1.7
225 2 14.909 10.042 1.7
226 2 16.150999 12.194 1.7
227 2 14.909 11.477 1.7
228 2 16.150999 9.325 1.7
229 2 17.393 10.042 1.7
230 2 18.636 12.194 1.7
231 2 17.393 11.477 1.7
232 2 18.636 9.325 1.7
233 2 19.878 10.042 1.7
234 2 21.120001 12.194 1.7
235 2 19.878 11.477 1.7
236 2 21.120001 9.325 1.7
237 2 22.363001 10.042 1.7
238 2 23.605 12.194 1.7
239 2 22.363001 11.477 1.7
240 2 23.605 9.325 1.7
241 2 24.848 10.042 1.7
242 2 26.09 12.194 1.7
243 2 24.848 11.477 1.7
244 2 26.09 9.325 1.7
245 2 27.332001 10.042 1.7
246 2 28.575001 12.194 1.7
247 2 27.332001 11.477 1.7
248 2 28.575001 9.325 1.7
249 2 29.816999 10.042 1.7
250 2 31.059 12.194 1.7
251 2 29.816999 11.477 1.7
252 2 31.059 9.325 1.7
253 2 32.301998 10.042 1.7
254 2 33.543999 12.194 1.7
255 2 32.301998 11.477 1.7
256 2 33.543999 9.325 1.7
257 2 34.786999 10.042 1.7
258 2 36.028999 12.194 1.7
259 2 34.786999 11.477 1.7
260 2 36.028999 9.325 1.7
261 2 37.271 10.042 1.7
262 2 38.514 12.194 1.7
263 2 37.271 11.477 1.7
264 2 38.514 9.325 1.7
265 2 39.756001 10.042 1.7
266 2 40.998001 12.194 1.7
267 2 39.756001 11.477 1.7
268 2 40.998001 9.325 1.7
269 2 42.241001 10.042 1.7
270 2 43.483002 12.194 1.7
271 2 42.241001 11.477 1.7
272 2 43.483002 9.325 1.7
273 2 44.726002 10.042 1.7
274 2 45.967999 12.194 1.7
275 2 44.726002 11.477 1.7
276 2 45.967999 9.325 1.7
277 2 47.209999 10.042 1.7
278 2 48.452999 12.194 1.7
279 2 47.209999 11.477 1.7
280 2 48.452999 9.325 1.7
281 2 49.695 10.042 1.7
282 2 50.937 12.194 1.7
283 2 49.695 11.477 1.7
284 2 50.937 9.325 1.7
285 2 52.18 10.042 1.7
286 2 53.422001 12.194 1.7
287 2 52.18 11.477 1.7
288 2 53.422001 9.325 1.7
289 2 54.665001 10.042 1.7
290 2 55.907001 12.194 1.7
291 2 54.665001 11.477 1.7
292 2 55.907001 9.325 1.7
293 2 57.148998 10.042 1.7
294 2 58.391998 12.194 1.7
295 2 57.148998 11.477 1.7
296 2 58.391998 9.325 1.7
297 2 59.633999 10.042 1.7
298 2 60.875999 12.194 1.7
299 2 59.633999 11.477 1.7
300 2 60.875999 9.325 1.7
301 2 0.0 14.346 1.7
302 2 1.242 16.497999 1.7
303 2 0.0 15.78 1.7
304 2 1.242 13.628 1.7
305 2 2.485 14.346 1.7
306 2 3.727 16.497999 1.7
307 2 2.485 15.78 1.7
308 2 3.727 13.628 1.7
309 2 4.97 14.346 1.7
310 2 6.212 16.497999 1.7
311 2 4.97 15.78 1.7
312 2 6.212 13.628 1.7
313 2 7.454 14.346 1.7
314 2 8.697 16.497999 1.7
315 2 7.454 15.78 1.7
316 2 8.697 13.628 1.7
317 2 9.939 14.346 1.7
318 2 11.181 16.497999 1.7
319 2 9.939 15.78 1.7
320 2 11.181 13.628 1.7
321 2 12.424 14.346 1.7
322 2 13.666 16.497999 1.7
323 2 12.424 15.78 1.7
324 2 13.666 13.628 1.7
325 2 14.909 14.346 1.7
326 2 16.150999 16.497999 1.7
327 2 14.909 15.78 1.7
328 2 16.150999 13.628 1.7
329 2 17.393 14.346 1.7
330 2 18.636 16.497999 1.7
331 2 17.393 15.78 1.7
332 2 18.636 13.628 1.7
333 2 19.878 14.346 1.7
334 2 21.120001 16.497999 1.7
335 2 19.878 15.78 1.7
336 2 21.120001 13.628 1.7
337 2 22.363001 14.346 1.7
338 2 23.605 16.497999 1.7
339 2 22.363001 15.78 1.7
340 2 23.605 13.628 1.7
341 2 24.848 14.346 1.7
342 2 26.09 16.497999 1.7
343 2 24.848 15.78 1.7
344 2 26.09 13.628 1.7
345 2 27.332001 14.346 1.7
346 2 28.575001 16.497999 1.7
347 2 27.332001 15.78 1.7
348 2 28.575001 13.628 1.7
349 2 29.816999 14.346 1.7
350 2 31.059 16.497999 1.7
351 2 29.816999 15.78 1.7
352 2 31.059 13.628 1.7
353 2 32.301998 14.346 1.7
354 2 33.543999 16.497999 1.7
355 2 32.301998 15.78 1.7
356 2 33.543999 13.628 1.7
357 2 34.786999 14.346 1.7
358 2 36.028999 16.497999 1.7
359 2 34.786999 15.78 1.7
360 2 36.028999 13.628 1.7
361 2 37.271 14.346 1.7
362 2 38.514 16.497999 1.7
363 2 37.271 15.78 1.7
364 2 38.514 13.628 1.7
365 2 39.756001 14.346 1.7
366 2 40.998001 16.497999 1.7
367 2 39.756001 15.78 1.7
368 2 40.998001 13.628 1.7
369 2 42.241001 14.346 1.7
370 2 43.483002 16.497999 1.7
371 2 42.241001 15.78 1.7
372 2 43.483002 13.628 1.7
373 2 44.726002 14.346 1.7
374 2 45.967999 16.497999 1.7
375 2 44.726002 15.78 1.7
376 2 45.967999 13.628 1.7
377 2 47.209999 14.346 1.7
378 2 48.452999 16.497999 1.7
379 2 47.209999 15.78 1.7
380 2 48.452999 13.628 1.7
381 2 49.695 14.346 1.7
382 2 50.937 16.497999 1.7
383 2 49.695 15.78 1.7
384 2 50.937 13.628 1.7
385 2 52.18 14.346 1.7
386 2 53.422001 16.497999 1.7
387 2 52.18 15.78 1.7
388 2 53.422001 13.628 1.7
389 2 54.665001 14.346 1.7
390 2 55.907001 16.497999 1.7
391 2 54.665001 15.78 1.7
392 2 55.907001 13.628 1.7
393 2 57.148998 14.346 1.7
394 2 58.391998 16.497999 1.7
395 2 57.148998 15.78 1.7
396 2 58.391998 13.628 1.7
397 2 59.633999 14.346 1.7
398 2 60.875999 16.497999 1.7
399 2 59.633999 15.78 1.7
400 2 60.875999 13.628 1.7
401 2 0.0 18.649 1.7
402 2 1.242 20.801001 1.7
403 2 0.0 20.084 1.7
404 2 1.242 17.931999 1.7
405 2 2.485 18.649 1.7
406 2 3.727 20.801001 1.7
407 2 2.485 20.084 1.7
408 2 3.727 17.931999 1.7
409 2 4.97 18.649 1.7
410 2 6.212 20.801001 1.7
411 2 4.97 20.084 1.7
412 2 6.212 17.931999 1.7
413 2 7.454 18.649 1.7
414 2 8.697 20.801001 1.7
415 2 7.454 20.084 1.7
416 2 8.697 17.931999 1.7
417 2 9.939 18.649 1.7
418 2 11.181 20.801001 1.7
419 2 9.939 20.084 1.7
420 2 11.181 17.931999 1.7
421 2 12.424 18.649 1.7
422 2 13.666 20.801001 1.7
423 2 12.424 20.084 1.7
424 2 13.666 17.931999 1.7
425 2 14.909 18.649 1.7
426 2 16.150999 20.801001 1.7
427 2 14.909 20.084 1.7
428 2 16.150999 17.931999 1.7
429 2 17.393 18.649 1.7
430 2 18.636 20.801001 1.7
431 2 17.393 20.084 1.7
432 2 18.636 17.931999 1.7
433 2 19.878 18.649 1.7
434 2 21.120001 20.801001 1.7
435 2 19.878 20.084 1.7
436 2 21.120001 17.931999 1.7
437 2 22.363001 18.649 1.7
438 2 23.605 20.801001 1.7
439 2 22.363001 20.084 1.7
440 2 23.605 17.931999 1.7
441 2 24.848 18.649 1.7
442 2 26.09 20.801001 1.7
443 2 24.848 20.084 1.7
444 2 26.09 17.931999 1.7
445 2 27.332001 18.649 1.7
446 2 28.575001 20.801001 1.7
447 2 27.332001 20.084 1.7
448 2 28.575001 17.931999 1.7
449 2 29.816999 18.649 1.7
450 2 31.059 20.801001 1.7
451 2 29.816999 20.084 1.7
452 2 31.059 17.931999 1.7
453 2 32.301998 18.649 1.7
454 2 33.543999 20.801001 1.7
455 2 32.301998 20.084 1.7
456 2 33.543999 17.931999 1.7
457 2 34.786999 18.649 1.7
458 2 36.028999 20.801001 1.7
459 2 34.786999 20.084 1.7
460 2 36.028999 17.931999 1.7
461 2 37.271 18.649 1.7
462 2 38.514 20.801001 1.7
463 2 37.271 20.084 1.7
464 2 38.514 17.931999 1.7
465 2 39.756001 18.649 1.7
466 2 40.998001 20.801001 1.7
467 2 39.756001 20.084 1.7
468 2 40.998001 17.931999 1.7
469 2 42.241001 18.649 1.7
470 2 43.483002 20.801001 1.7
471 2 42.241001 20.084 1.7
472 2 43.483002 17.931999 1.7
473 2 44.726002 18.649 1.7
474 2 45.967999 20.801001 1.7
475 2 44.726002 20.084 1.7
476 2 45.967999 17.931999 1.7
477 2 47.209999 18.649 1.7
478 2 48.452999 20.801001 1.7
479 2 47.209999 20.084 1.7
480 2 48.452999 17.931999 1.7
481 2 49.695 18.649 1.7
482 2 50.937 20.801001 1.7
483 2 49.695 20.084 1.7
484 2 50.937 17.931999 1.7
485 2 52.18 18.649 1.7
486 2 53.422001 20.801001 1.7
487 2 52.18 20.084 1.7
488 2 53.422001 17.931999 1.7
489 2 54.665001 18.649 1.7
490 2 55.907001 20.801001 1.7
491 2 54.665001 20.084 1.7
492 2 55.907001 17.931999 1.7
493 2 57.148998 18.649 1.7
494 2 58.391998 20.801001 1.7
495 2 57.148998 20.084 1.7
496 2 58.391998 17.931999 1.7
497 2 59.633999 18.649 1.7
498 2 60.875999 20.801001 1.7
499 2 59.633999 20.084 1.7
500 2 60.875999 17.931999 1.7
501 2 0.0 22.952999 1.7
502 2 1.242 25.105 1.7
503 2 0.0 24.388 1.7
504 2 1.242 22.236 1.7
505 2 2.485 22.952999 1.7
506 2 3.727 25.105 1.7
507 2 2.485 24.388 1.7
508 2 3.727 22.236 1.7
509 2 4.97 22.952999 1.7
510 2 6.212 25.105 1.7
511 2 4.97 24.388 1.7
512 2 6.212 22.236 1.7
513 2 7.454 22.952999 1.7
514 2 8.697 25.105 1.7
515 2 7.454 24.388 1.7
516 2 8.697 22.236 1.7
517 2 9.939 22.952999 1.7
518 2 11.181 25.105 1.7
519 2 9.939 24.388 1.7
520 2 11.181 22.236 1.7
521 2 12.424 22.952999 1.7
522 2 13.666 25.105 1.7
523 2 12.424 24.388 1.7
524 2 13.666 22.236 1.7
525 2 14.909 22.952999 1.7
526 2 16.150999 25.105 1.7
527 2 14.909 24.388 1.7
528 2 16.150999 22.236 1.7
529 2 17.393 22.952999 1.7
530 2 18.636 25.105 1.7
531 2 17.393 24.388 1.7
532 2 18.636 22.236 1.7
533 2 19.878 22.952999 1.7
534 2 21.120001 25.105 1.7
535 2 19.878 24.388 1.7
536 2 21.120001 22.236 1.7
537 2 22.363001 22.952999 1.7
538 2 23.605 25.105 1.7
539 2 22.363001 24.388 1.7
540 2 23.605 22.236 1.7
541 2 24.848 22.952999 1.7
542 2 26.09 25.105 1.7
543 2 24.848 24.388 1.7
544 2 26.09 22.236 1.7
545 2 27.332001 22.952999 1.7
546 2 28.575001 25.105 1.7
547 2 27.332001 24.388 1.7
548 2 28.575001 22.236 1.7
549 2 29.816999 22.952999 1.7
550 2 31.059 25.105 1.7
551 2 29.816999 24.388 1.7
552 2 31.059 22.236 1.7
553 2 32.301998 22.952999 1.7
554 2 33.543999 25.105 1.7
555 2 32.301998 24.388 1.7
556 2 33.543999 22.236 1.7
557 2 34.786999 22.952999 1.7
558 2 36.028999 25.105 1.7
559 2 34.786999 24.388 1.7
560 2 36.028999 22.236 1.7
561 2 37.271 22.952999 1.7
562 2 38.514 25.105 1.7
563 2 37.271 24.388 1.7
564 2 38.514 22.236 1.7
565 2 39.756001 22.952999 1.7
566 2 40.998001 25.105 1.7
567 2 39.756001 24.388 1.7
568 2 40.998001 22.236 1.7
569 2 42.241001 22.952999 1.7
570 2 43.483002 25.105 1.7
571 2 42.241001 24.388 1.7
572 2 43.483002 22.236 1.7
573 2 44.726002 22.952999 1.7
574 2 45.967999 25.105 1.7
575 2 44.726002 24.388 1.7
576 2 45.967999 22.236 1.7
577 2 47.209999 22.952999 1.7
578 2 48.452999 25.105 1.7
579 2 47.209999 24.388 1.7
580 2 48.452999 22.236 1.7
581 2 49.695 22.952999 1.7
582 2 50.937 25.105 1.7
583 2 49.695 24.388 1.7
584 2 50.937 22.236 1.7
585 2 52.18 22.952999 1.7
586 2 53.422001 25.105 1.7
587 2 52.18 24.388 1.7
588 2 53.422001 22.236 1.7
589 2 54.665001 22.952999 1.7
590 2 55.907001 25.105 1.7
591 2 54.665001 24.388 1.7
592 2 55.907001 22.236 1.7
593 2 57.148998 22.952999 1.7
594 2 58.391998 25.105 1.7
595 2 57.148998 24.388 1.7
596 2 58.391998 22.236 1.7
597 2 59.633999 22.952999 1.7
598 2 60.875999 25.105 1.7
599 2 59.633999 24.388 1.7
600 2 60.875999 22.236 1.7
601 2 0.0 27.257 1.7
602 2 1.242 29.409 1.7
603 2 0.0 28.691 1.7
604 2 1.242 26.540001 1.7
605 2 2.485 27.257 1.7
606 2 3.727 29.409 1.7
607 2 2.485 28.691 1.7
608 2 3.727 26.540001 1.7
609 2 4.97 27.257 1.7
610 2 6.212 29.409 1.7
611 2 4.97 28.691 1.7
612 2 6.212 26.540001 1.7
613 2 7.454 27.257 1.7
614 2 8.697 29.409 1.7
615 2 7.454 28.691 1.7
616 2 8.697 26.540001 1.7
617 2 9.939 27.257 1.7
618 2 11.181 29.409 1.7
619 2 9.939 28.691 1.7
620 2 11.181 26.540001 1.7
621 2 12.424 27.257 1.7
622 2 13.666 29.409 1.7
623 2 12.424 28.691 1.7
624 2 13.666 26.540001 1.7
625 2 14.909 27.257 1.7
626 2 16.150999 29.409 1.7
627 2 14.909 28.691 1.7
628 2 16.150999 26.540001 1.7
629 2 17.393 27.257 1.7
630 2 18.636 29.409 1.7
631 2 17.393 28.691 1.7
632 2 18.636 26.540001 1.7
633 2 19.878 27.257 1.7
634 2 21.120001 29.409 1.7
635 2 19.878 28.691 1.7
636 2 21.120001 26.540001 1.7
637 2 22.363001 27.257 1.7
638 2 23.605 29.409 1.7
639 2 22.363001 28.691 1.7
640 2 23.605 26.540001 1.7
641 2 24.848 27.257 1.7
642 2 26.09 29.409 1.7
643 2 24.848 28.691 1.7
644 2 26.09 26.540001 1.7
645 2 27.332001 27.257 1.7
646 2 28.575001 29.409 1.7
647 2 27.332001 28.691 1.7
648 2 28.575001 26.540001 1.7
649 2 29.816999 27.257 1.7
650 2 31.059 29.409 1.7
651 2 29.816999 28.691 1.7
652 2 31.059 26.540001 1.7
653 2 32.301998 27.257 1.7
654 2 33.543999 29.409 1.7
655 2 32.301998 28.691 1.7
656 2 33.543999 26.540001 1.7
657 2 34.786999 27.257 1.7
658 2 36.028999 29.409 1.7
659 2 34.786999 28.691 1.7
660 2 36.028999 26.540001 1.7
661 2 37.271 27.257 1.7
662 2 38.514 29.409 1.7
663 2 37.271 28.691 1.7
664 2 38.514 26.540001 1.7
665 2 39.756001 27.257 1.7
666 2 40.998001 29.409 1.7
667 2 39.756001 28.691 1.7
668 2 40.998001 26.540001 1.7
669 2 42.241001 27.257 1.7
670 2 43.483002 29.409 1.7
671 2 42.241001 28.691 1.7
672 2 43.483002 26.540001 1.7
673 2 44.726002 27.257 1.7
674 2 45.967999 29.409 1.7
675 2 44.726002 28.691 1.7
676 2 45.967999 26.540001 1.7
677 2 47.209999 27.257 1.7
678 2 48.452999 29.409 1.7
679 2 47.209999 28.691 1.7
680 2 48.452999 26.540001 1.7
681 2 49.695 27.257 1.7
682 2 50.937 29.409 1.7
683 2 49.695 28.691 1.7
684 2 50.937 26.540001 1.7
685 2 52.18 27.257 1.7
686 2 53.422001 29.409 1.7
687 2 52.18 28.691 1.7
688 2 53.422001 26.540001 1.7
689 2 54.665001 27.257 1.7
690 2 55.907001 29.409 1.7
691 2 54.665001 28.691 1.7
692 2 55.907001 26.540001 1.7
693 2 57.148998 27.257 1.7
694 2 58.391998 29.409 1.7
695 2 57.148998 28.691 1.7
696 2 58.391998 26.540001 1.7
697 2 59.633999 27.257 1.7
698 2 60.875999 29.409 1.7
699 2 59.633999 28.691 1.7
700 2 60.875999 26.540001 1.7
701 2 0.0 31.561001 1.7
702 2 1.242 33.712002 1.7
703 2 0.0 32.994999 1.7
704 2 1.242 30.843 1.7
705 2 2.485 31.561001 1.7
706 2 3.727 33.712002 1.7
707 2 2.485 32.994999 1.7
708 2 3.727 30.843 1.7
709 2 4.97 31.561001 1.7
710 2 6.212 33.712002 1.7
711 2 4.97 32.994999 1.7
712 2 6.212 30.843 1.7
713 2 7.454 31.561001 1.7
714 2 8.697 33.712002 1.7
715 2 7.454 32.994999 1.7
716 2 8.697 30.843 1.7
717 2 9.939 31.561001 1.7
718 2 11.181 33.712002 1.7
719 2 9.939 32.994999 1.7
720 2 11.181 30.843 1.7
721 2 12.424 31.561001 1.7
722 2 13.666 33.712002 1.7
723 2 12.424 32.994999 1.7
724 2 13.666 30.843 1.7
725 2 14.909 31.561001 1.7
726 2 16.150999 33.712002 1.7
727 2 14.909 32.994999 1.7
728 2 16.150999 30.843 1.7
729 2 17.393 31.561001 1.7
730 2 18.636 33.712002 1.7
731 2 17.393 32.994999 1.7
732 2 18.636 30.843 1.7
733 2 19.878 31.561001 1.7
734 2 21.120001 33.712002 1.7
735 2 19.878 32.994999 1.7
736 2 21.120001 30.843 1.7
737 2 22.363001 31.561001 1.7
738 2 23.605 33.712002 1.7
739 2 22.363001 32.994999 1.7
740 2 23.605 30.843 1.7
741 2 24.848 31.561001 1.7
742 2 26.09 33.712002 1.7
743 2 24.848 32.994999 1.7
744 2 26.09 30.843 1.7
745 2 27.332001 31.561001 1.7
746 2 28.575001 33.712002 1.7
747 2 27.332001 32.994999 1.7
748 2 28.575001 30.843 1.7
749 2 29.816999 31.561001 1.7
750 2 31.059 33.712002 1.7
751 2 29.816999 32.994999 1.7
752 2 31.059 30.843 1.7
753 2 32.301998 31.561001 1.7
754 2 33.543999 33.712002 1.7
755 2 32.301998 32.994999 1.7
756 2 33.543999 30.843 1.7
757 2 34.786999 31.561001 1.7
758 2 36.028999 33.712002 1.7
759 2 34.786999 32.994999 1.7
760 2 36.028999 30.843 1.7
761 2 37.271 31.561001 1.7
762 2 38.514 33.712002 1.7
763 2 37.271 32.994999 1.7
764 2 38.514 30.843 1.7
765 2 39.756001 31.561001 1.7
766 2 40.998001 33.712002 1.7
767 2 39.756001 32.994999 1.7
768 2 40.998001 30.843 1.7
769 2 42.241001 31.561001 1.7
770 2 43.483002 33.712002 1.7
771 2 42.241001 32.994999 1.7
772 2 43.483002 30.843 1.7
773 2 44.726002 31.561001 1.7
774 2 45.967999 33.712002 1.7
775 2 44.726002 32.994999 1.7
776 2 45.967999 30.843 1.7
777 2 47.209999 31.561001 1.7
778 2 48.452999 33.712002 1.7
779 2 47.209999 32.994999 1.7
780 2 48.452999 30.843 1.7
781 2 49.695 31.561001 1.7
782 2 50.937 33.712002 1.7
783 2 49.695 32.994999 1.7
784 2 50.937 30.843 1.7
785 2 52.18 31.561001 1.7
786 2 53.422001 33.712002 1.7
787 2 52.18 32.994999 1.7
788 2 53.422001 30.843 1.7
789 2 54.665001 31.561001 1.7
790 2 55.907001 33.712002 1.7
791 2 54.665001 32.994999 1.7
792 2 55.907001 30.843 1.7
793 2 57.148998 31.561001 1.7
794 2 58.391998 33.712002 1.7
795 2 57.148998 32.994999 1.7
796 2 58.391998 30.843 1.7
797 2 59.633999 31.561001 1.7
798 2 60.875999 33.712002 1.7
799 2 59.633999 32.994999 1.7
800 2 60.875999 30.843 1.7
801 2 0.0 35.863998 1.7
802 2 1.242 38.015999 1.7
803 2 0.0 37.299 1.7
804 2 1.242 35.146999 1.7
805 2 2.485 35.863998 1.7
806 2 3.727 38.015999 1.7
807 2 2.485 37.299 1.7
808 2 3.727 35.146999 1.7
809 2 4.97 35.863998 1.7
810 2 6.212 38.015999 1.7
811 2 4.97 37.299 1.7
812 2 6.212 35.146999 1.7
813 2 7.454 35.863998 1.7
814 2 8.697 38.015999 1.7
815 2 7.454 37.299 1.7
816 2 8.697 35.146999 1.7
817 2 9.939 35.863998 1.7
818 2 11.181 38.015999 1.7
819 2 9.939 37.299 1.7
820 2 11.181 35.146999 1.7
821 2 12.424 35.863998 1.7
822 2 13.666 38.015999 1.7
823 2 12.424 37.299 1.7
824 2 13.666 35.146999 1.7
825 2 14.909 35.863998 1.7
826 2 16.150999 38.015999 1.7
827 2 14.909 37.299 1.7
828 2 16.150999 35.146999 1.7
829 2 17.393 35.863998 1.7
830 2 18.636 38.015999 1.7
831 2 17.393 37.299 1.7
832 2 18.636 35.146999 1.7
833 2 19.878 35.863998 1.7
834 2 21.120001 38.015999 1.7
835 2 19.878 37.299 1.7
836 2 21.120001 35.146999 1.7
837 2 22.363001 35.863998 1.7
838 2 23.605 38.015999 1.7
839 2 22.363001 37.299 1.7
840 2 23.605 35.146999 1.7
841 2 24.848 35.863998 1.7
842 2 26.09 38.015999 1.7
843 2 24.848 37.299 1.7
844 2 26.09 35.146999 1.7
845 2 27.332001 35.863998 1.7
846 2 28.575001 38.015999 1.7
847 2 27.332001 37.299 1.7
848 2 28.575001 35.146999 1.7
849 2 29.816999 35.863998 1.7
850 2 31.059 38.015999 1.7
851 2 29.816999 37.299 1.7
852 2 31.059 35.146999 1.7
853 2 32.301998 35.863998 1.7
854 2 33.543999 38.015999 1.7
855 2 32.301998 37.299 1.7
856 2 33.543999 35.146999 1.7
857 2 34.786999 35.863998 1.7
858 2 36.028999 38.015999 1.7
859 2 34.786999 37.299 1.7
860 2 36.028999 35.146999 1.7
861 2 37.271 35.863998 1.7
862 2 38.514 38.015999 1.7
863 2 37.271 37.299 1.7
864 2 38.514 35.146999 1.7
865 2 39.756001 35.863998 1.7
866 2 40.998001 38.015999 1.7
867 2 39.756001 37.299 1.7
868 2 40.998001 35.146999 1.7
869 2 42.241001 35.863998 1.7
870 2 43.483002 38.015999 1.7
871 2 42.241001 37.299 1.7
872 2 43.483002 35.146999 1.7
873 2 44.726002 35.863998 1.7
874 2 45.967999 38.015999 1.7
875 2 44.726002 37.299 1.7
876 2 45.967999 35.146999 1.7
877 2 47.209999 35.863998 1.7
878 2 48.452999 38.015999 1.7
879 2 47.209999 37.299 1.7
880 2 48.452999 35.146999 1.7
881 2 49.695 35.863998 1.7
882 2 50.937 38.015999 1.7
883 2 49.695 37.299 1.7
884 2 50.937 35.146999 1.7
885 2 52.18 35.863998 1.7
886 2 53.422001 38.015999 1.7
887 2 52.18 37.299 1.7
888 2 53.422001 35.146999 1.7
889 2 54.665001 35.863998 1.7
890 2 55.907001 38.015999 1.7
891 2 54.665001 37.299 1.7
892 2 55.907001 35.146999 1.7
893 2 57.148998 35.863998 1.7
894 2 58.391998 38.015999 1.7
895 2 57.148998 37.299 1.7
896 2 58.391998 35.146999 1.7
897 2 59.633999 35.863998 1.7
898 2 60.875999 38.015999 1.7
899 2 59.633999 37.299 1.7
900 2 60.875999 35.146999 1.7
901 2 0.0 40.167999 1.7
902 2 1.242 42.32 1.7
903 2 0.0 41.603001 1.7
904 2 1.242 39.451 1.7
905 2 2.485 40.167999 1.7
906 2 3.727 42.32 1.7
907 2 2.485 41.603001 1.7
908 2 3.727 39.451 1.7
909 2 4.97 40.167999 1.7
910 2 6.212 42.32 1.7
911 2 4.97 41.603001 1.7
912 2 6.212 39.451 1.7
913 2 7.454 40.167999 1.7
914 2 8.697 42.32 1.7
915 2 7.454 41.603001 1.7
916 2 8.697 39.451 1.7
917 2 9.939 40.167999 1.7
918 2 11.181 42.32 1.7
919 2 9.939 41.603001 1.7
920 2 11.181 39.451 1.7
921 2 12.424 40.167999 1.7
922 2 13.666 42.32 1.7
923 2 12.424 41.603001 1.7
924 2 13.666 39.451 1.7
925 2 14.909 40.167999 1.7
926 2 16.150999 42.32 1.7
927 2 14.909 41.603001 1.7
928 2 16.150999 39.451 1.7
929 2 17.393 40.167999 1.7
930 2 18.636 42.32 1.7
931 2 17.393 41.603001 1.7
932 2 18.636 39.451 1.7
933 2 19.878 40.167999 1.7
934 2 21.120001 42.32 1.7
935 2 19.878 41.603001 1.7
936 2 21.120001 39.451 1.7
937 2 22.363001 40.167999 1.7
938 2 23.605 42.32 1.7
939 2 22.363001 41.603001 1.7
940 2 23.605 39.451 1.7
941 2 24.848 40.167999 1.7
942 2 26.09 42.32 1.7
943 2 24.848 41.603001 1.7
944 2 26.09 39.451 1.7
945 2 27.332001 40.167999 1.7
946 2 28.575001 42.32 1.7
947 2 27.332001 41.603001 1.7
948 2 28.575001 39.451 1.7
949 2 29.816999 40.167999 1.7
950 2 31.059 42.32 1.7
951 2 29.816999 41.603001 1.7
952 2 31.059 39.451 1.7
953 2 32.301998 40.167999 1.7
954 2 33.543999 42.32 1.7
955 2 32.301998 41.603001 1.7
956 2 33.543999 39.451 1.7
957 2 34.786999 40.167999 1.7
958 2 36.028999 42.32 1.7
959 2 34.786999 41.603001 1.7
960 2 36.028999 39.451 1.7
961 2 37.271 40.167999 1.7
962 2 38.514 42.32 1.7
963 2 37.271 41.603001 1.7
964 2 38.514 39.451 1.7
965 2 39.756001 40.167999 1.7
966 2 40.998001 42.32 1.7
967 2 39.756001 41.603001 1.7
968 2 40.998001 39.451 1.7
969 2 42.241001 40.167999 1.7
970 2 43.483002 42.32 1.7
971 2 42.241001 41.603001 1.7
972 2 43.483002 39.451 1.7
973 2 44.726002 40.167999 1.7
974 2 45.967999 42.32 1.7
975 2 44.726002 41.603001 1.7
976 2 45.967999 39.451 1.7
977 2 47.209999 40.167999 1.7
978 2 48.452999 42.32 1.7
979 2 47.209999 41.603001 1.7
980 2 48.452999 39.451 1.7
981 2 49.695 40.167999 1.7
982 2 50.937 42.32 1.7
983 2 49.695 41.603001 1.7
984 2 50.937 39.451 1.7
985 2 52.18 40.167999 1.7
986 2 53.422001 42.32 1.7
987 2 52.18 41.603001 1.7
988 2 53.422001 39.451 1.7
989 2 54.665001 40.167999 1.7
990 2 55.907001 42.32 1.7
991 2 54.665001 41.603001 1.7
992 2 55.907001 39.451 1.7
993 2 57.148998 40.167999 1.7
994 2 58.391998 42.32 1.7
995 2 57.148998 41.603001 1.7
996 2 58.391998 39.451 1.7
997 2 59.633999 40.167999 1.7
998 2 60.875999 42.32 1.7
999 2 59.633999 41.603001 1.7
1000 2 60.875999 39.451 1.7
1001 2 0.0 44.472 1.7
1002 2 1.242 46.624001 1.7
1003 2 0.0 45.905998 1.7
1004 2 1.242 43.754002 1.7
1005 2 2.485 44.472 1.7
1006 2 3.727 46.624001 1.7
1007 2 2.485 45.905998 1.7
1008 2 3.727 43.754002 1.7
1009 2 4.97 44.472 1.7
1010 2 6.212 46.624001 1.7
1011 2 4.97 45.905998 1.7
1012 2 6.212 43.754002 1.7
1013 2 7.454 44.472 1.7
1014 2 8.697 46.624001 1.7
1015 2 7.454 45.905998 1.7
1016 2 8.697 43.754002 1.7
1017 2 9.939 44.472 1.7
1018 2 11.181 46.624001 1.7
1019 2 9.939 45.905998 1.7
1020 2 11.181 43.754002 1.7
1021 2 12.424 44.472 1.7
1022 2 13.666 46.624001 1.7
1023 2 12.424 45.905998 1.7
1024 2 13.666 43.754002 1.7
1025 2 14.909 44.472 1.7
1026 2 16.150999 46.624001 1.7
1027 2 14.909 45.905998 1.7
1028 2 16.150999 43.754002 1.7
1029 2 17.393 44.472 1.7
1030 2 18.636 46.624001 1.7
1031 2 17.393 45.905998 1.7
1032 2 18.636 43.754002 1.7
1033 2 19.878 44.472 1.7
1034 2 21.120001 46.624001 1.7
1035 2 19.878 45.905998 1.7
1036 2 21.120001 43.754002 1.7
1037 2 22.363001 44.472 1.7
1038 2 23.605 46.624001 1.7
1039 2 22.363001 45.905998 1.7
1040 2 23.605 43.754002 1.7
1041 2 24.848 44.472 1.7
1042 2 26.09 46.624001 1.7
1043 2 24.848 45.905998 1.7
1044 2 26.09 43.754002 1.7
1045 2 27.332001 44.472 1.7
1046 2 28.575001 46.624001 1.7
1047 2 27.332001 45.905998 1.7
1048 2 28.575001 43.754002 1.7
1049 2 29.816999 44.472 1.7
1050 2 31.059 46.624001 1.7
1051 2 29.816999 45.905998 1.7
1052 2 31.059 43.754002 1.7
1053 2 32.301998 44.472 1.7
1054 2 33.543999 46.624001 1.7
1055 2 32.301998 45.905998 1.7
1056 2 33.543999 43.754002 1.7
1057 2 34.786999 44.472 1.7
1058 2 36.028999 46.624001 1.7
1059 2 34.786999 45.905998 1.7
1060 2 36.028999 43.754002 1.7
1061 2 37.271 44.472 1.7
1062 2 38.514 46.624001 1.7
1063 2 37.271 45.905998 1.7
1064 2 38.514 43.754002 1.7
1065 2 39.756001 44.472 1.7
1066 2 40.998001 46.624001 1.7
1067 2 39.756001 45.905998 1.7
1068 2 40.998001 43.754002 1.7
1069 2 42.241001 44.472 1.7
1070 2 43.483002 46.624001 1.7
1071 2 42.241001 45.905998 1.7
1072 2 43.483002 43.754002 1.7
1073 2 44.726002 44.472 1.7
1074 2 45.967999 46.624001 1.7
1075 2 44.726002 45.905998 1.7
1076 2 45.967999 43.754002 1.7
1077 2 47.209999 44.472 1.7
1078 2 48.452999 46.624001 1.7
1079 2 47.209999 45.905998 1.7
1080 2 48.452999 43.754002 1.7
1081 2 49.695 44.472 1.7
1082 2 50.937 46.624001 1.7
1083 2 49.695 45.905998 1.7
1084 2 50.937 43.754002 1.7
1085 2 52.18 44.472 1.7
1086 2 53.422001 46.624001 1.7
1087 2 52.18 45.905998 1.7
1088 2 53.422001 43.754002 1.7
1089 2 54.665001 44.472 1.7
1090 2 55.907001 46.624001 1.7
1091 2 54.665001 45.905998 1.7
1092 2 55.907001 43.754002 1.7
1093 2 57.148998 44.472 1.7
1094 2 58.391998 46.624001 1.7
1095 2 57.148998 45.905998 1.7
1096 2 58.391998 43.754002 1.7
1097 2 59.633999 44.472 1.7
1098 2 60.875999 46.624001 1.7
1099 2 59.633999 45.905998 1.7
1100 2 60.875999 43.754002 1.7
1101 2 0.0 48.775002 1.7
1102 2 1.242 50.926998 1.7
1103 2 0.0 50.209999 1.7
1104 2 1.242 48.057999 1.7
1105 2 2.485 48.775002 1.7
1106 2 3.727 50.926998 1.7
1107 2 2.485 50.209999 1.7
1108 2 3.727 48.057999 1.7
1109 2 4.97 48.775002 1.7
1110 2 6.212 50.926998 1.7
1111 2 4.97 50.209999 1.7
1112 2 6.212 48.057999 1.7
1113 2 7.454 48.775002 1.7
1114 2 8.697 50.926998 1.7
1115 2 7.454 50.209999 1.7
1116 2 8.697 48.057999 1.7
1117 2 9.939 48.775002 1.7
1118 2 11.181 50.926998 1.7
1119 2 9.939 50.209999 1.7
1120 2 11.181 48.057999 1.7
1121 2 12.424 48.775002 1.7
1122 2 13.666 50.926998 1.7
1123 2 12.424 50.209999 1.7
1124 2 13.666 48.057999 1.7
1125 2 14.909 48.775002 1.7
1126 2 16.150999 50.926998 1.7
1127 2 14.909 50.209999 1.7
1128 2 16.150999 48.057999 1.7
1129 2 17.393 48.775002 1.7
1130 2 18.636 50.926998 1.7
1131 2 17.393 50.209999 1.7
1132 2 18.636 48.057999 1.7
1133 2 19.878 48.775002 1.7
1134 2 21.120001 50.926998 1.7
1135 2 19.878 50.209999 1.7
1136 2 21.120001 48.057999 1.7
1137 2 22.363001 48.775002 1.7
1138 2 23.605 50.926998 1.7
1139 2 22.363001 50.209999 1.7
1140 2 23.605 48.057999 1.7
1141 2 24.848 48.775002 1.7
1142 2 26.09 50.926998 1.7
1143 2 24.848 50.209999 1.7